LAMMPS (18 Jul 2015)
WARNING: OMP_NUM_THREADS environment is not set. (../comm.cpp:89)
  using 1 OpenMP thread(s) per MPI task
#===============Variables=============

variable 	peTot equal pe
variable 	eMol equal emol
variable 	Press equal press
variable	zFactor equal "press*vol*0.0101325/(1.3806488*temp*v_Nmolec)"
variable	uDep equal "(pe-emol)*4184/(8.3144*temp*v_Nmolec)"
variable	L equal "(v_Nmolec*v_MW/(v_rho*0.60221413))^(1/3)"

#=============Matrim_equil=============

clear
WARNING: OMP_NUM_THREADS environment is not set. (../comm.cpp:89)
  using 1 OpenMP thread(s) per MPI task
units		real
boundary	p p p
atom_style	full
package		gpu 1

#=============FORCE FIELD=============

#pair_style	${pair} ${rCut}
pair_style	${pair} linear ${Ntable}
pair_style	table/gpu linear ${Ntable}
pair_style	table/gpu linear 2481
#kspace_style	ewald 1.0e-4
pair_modify	mix arithmetic
#special_bonds	amber
#pair_modify	shift yes

bond_style	harmonic
angle_style	harmonic
dihedral_style	opls
#improper_style	cvff

#dataorrestart
read_data	DataFiles/${rho}/${rho}.data
read_data	DataFiles/0.70800/${rho}.data
read_data	DataFiles/0.70800/0.70800.data
  orthogonal box = (0 0 0) to (34.2526 34.2526 34.2526)
  1 by 1 by 1 MPI processor grid
  reading atoms ...
  1200 atoms
  scanning bonds ...
  4 = max bonds/atom
  scanning angles ...
  6 = max angles/atom
  scanning dihedrals ...
  4 = max dihedrals/atom
  reading bonds ...
  1050 bonds
  reading angles ...
  1350 angles
  reading dihedrals ...
  750 dihedrals
  4 = max # of 1-2 neighbors
  4 = max # of 1-3 neighbors
  5 = max # of 1-4 neighbors
  7 = max # of special neighbors
#read_data	isopentane.data

#=============PairParameters=============


pair_coeff	1 1 ${table} >C<>C<
pair_coeff	1 1 potential.table >C<>C<
pair_coeff	1 2 ${table} >C<-CH2-
pair_coeff	1 2 potential.table >C<-CH2-
pair_coeff	2 2 ${table} -CH2--CH2-
pair_coeff	2 2 potential.table -CH2--CH2-

pair_coeff	1 3 ${table} >C<-CH3a
pair_coeff	1 3 potential.table >C<-CH3a
pair_coeff	2 3 ${table} -CH2--CH3a
pair_coeff	2 3 potential.table -CH2--CH3a
pair_coeff	3 3 ${table} -CH3a-CH3a
pair_coeff	3 3 potential.table -CH3a-CH3a

pair_coeff	1 4 ${table} >C<-CH3c
pair_coeff	1 4 potential.table >C<-CH3c
pair_coeff	2 4 ${table} -CH2--CH3c
pair_coeff	2 4 potential.table -CH2--CH3c
pair_coeff	3 4 ${table} -CH3a-CH3c
pair_coeff	3 4 potential.table -CH3a-CH3c
pair_coeff	4 4 ${table} -CH3c-CH3c
pair_coeff	4 4 potential.table -CH3c-CH3c


#pair_write 	2 2 2781 r 0.2 14.1 table.txt CH2CH2
#pair_write 	1 1 2781 r 0.2 14.1 table.txt CHCH
#pair_write 	1 2 2781 r 0.2 14.1 table.txt CHCH2

variable	realEps equal ${eps}/503.2195612716
variable	realEps equal 32/503.2195612716
variable	realEps0 equal ${eps0}/503.2195612716
variable	realEps0 equal 54.6/503.2195612716
variable	realEpsij equal (${eps}*${eps0})^(1/2)/503.2195612716
variable	realEpsij equal (32*${eps0})^(1/2)/503.2195612716
variable	realEpsij equal (32*54.6)^(1/2)/503.2195612716
variable	sigij equal (${sig}+${sig0})/2
variable	sigij equal (3.98+${sig0})/2
variable	sigij equal (3.98+3.98)/2
variable	Aij equal (1+${AorN}+${AorN0}+${AorN}*${AorN0})^(1/2)-1
variable	Aij equal (1+0.0+${AorN0}+${AorN}*${AorN0})^(1/2)-1
variable	Aij equal (1+0.0+0.0+${AorN}*${AorN0})^(1/2)-1
variable	Aij equal (1+0.0+0.0+0.0*${AorN0})^(1/2)-1
variable	Aij equal (1+0.0+0.0+0.0*0.0)^(1/2)-1

#pair_coeff	2 2 ${realEps} ${sig} ${AorN} 0
#pair_coeff	1 1 ${realEps0} ${sig0} ${AorN0} 0
#pair_coeff	1 2 ${realEpsij} ${sigij} ${Aij} 0
#pair_coeff	* 3 0 0 0 0

neighbor	2.0 bin
neigh_modify	every 1 delay 4 check yes page 100000000 one 100000
velocity	all create $T 4928459 rot yes dist gaussian
velocity	all create 660 4928459 rot yes dist gaussian
#change_box	all x final 0.0 $L y final 0.0 $L z final 0.0 $L
thermo_style	custom step elapsed time cpuremain temp press pe ke etotal evdwl emol ecoul vol density
thermo		1000
minimize	1.0e-2 1.0e-1 100 1000
WARNING: Resetting reneighboring criteria during minimization (../min.cpp:168)
Neighbor list info ...
  0 neighbor list requests
  update every 1 steps, delay 0 steps, check yes
  master list distance cutoff = 14.6
  ghost atom cutoff = 14.6
Memory usage per processor = 10.1824 Mbytes
Step Elapsed Time CPULeft Temp Press PotEng KinEng TotEng E_vdwl E_mol E_coul Volume Density 
       0        0            0            0          660 4.6856525e+10 6.0013291e+09    2358.8342 6.0013315e+09 6.001329e+09    140.27462            0    40186.625    0.7079969 
     100      100          100            0          660    6652.2556    -1077.558    2358.8342    1281.2762   -1211.8922    134.33422            0    40186.625    0.7079969 
Loop time of 0.089314 on 1 procs (1 MPI x 1 OpenMP) for 100 steps with 1200 atoms

Minimization stats:
  Stopping criterion = max iterations
  Energy initial, next-to-last, final = 
         6001329096.82     -1065.87803356     -1077.55801507
  Force two-norm initial, final = 1.66085e+11 96.4547
  Force max component initial, final = 9.24179e+10 22.6298
  Final line search alpha, max atom move = 0.00538025 0.121754
  Iterations, force evaluations = 100 132

Pair  time (%) = 0.0153155 (17.148)
Bond  time (%) = 0.0621634 (69.6009)
Neigh time (%) = 0.00171971 (1.92547)
Comm  time (%) = 0.0049932 (5.59061)
Outpt time (%) = 2.71797e-05 (0.0304316)
Other time (%) = 0.00509501 (5.7046)

Nlocal:    1200 ave 1200 max 1200 min
Histogram: 1 0 0 0 0 0 0 0 0 0
Nghost:    6351 ave 6351 max 6351 min
Histogram: 1 0 0 0 0 0 0 0 0 0
Neighs:    0 ave 0 max 0 min
Histogram: 1 0 0 0 0 0 0 0 0 0

Total # of neighbors = 0
Ave neighs/atom = 0
Ave special neighs/atom = 5.25
Neighbor list builds = 7
Dangerous builds = 0
reset_timestep	0
fix		1 all nvt temp $T $T 200
fix		1 all nvt temp 660 $T 200
fix		1 all nvt temp 660 660 200
timestep	0.25
run		5000
Neighbor list info ...
  0 neighbor list requests
  update every 1 steps, delay 4 steps, check yes
  master list distance cutoff = 14.6
  ghost atom cutoff = 14.6
Memory usage per processor = 9.05695 Mbytes
Step Elapsed Time CPULeft Temp Press PotEng KinEng TotEng E_vdwl E_mol E_coul Volume Density 
       0        0            0            0          660    6652.2556    -1077.558    2358.8342    1281.2762   -1211.8922    134.33422            0    40186.625    0.7079969 
    1000     1000          250    2.2984285    430.93353    5976.7529    49.825396    1540.1527    1589.9781   -1058.5051    1108.3305            0    40186.625    0.7079969 
    2000     2000          500     1.727349    515.12998    4410.5728    231.23124    1841.0701    2072.3013   -1089.0941    1320.3254            0    40186.625    0.7079969 
    3000     3000          750    1.1557708     604.8234    5001.2295    407.39442    2161.6335    2569.0279   -1081.5006     1488.895            0    40186.625    0.7079969 
    4000     4000         1000   0.57928151    678.14619    4591.1915    557.85374    2423.6885    2981.5423   -1048.6844    1606.5381            0    40186.625    0.7079969 
    5000     5000         1250            0    713.20484    5890.0142    667.63453    2548.9879    3216.6224   -1051.7268    1719.3614            0    40186.625    0.7079969 
Loop time of 2.90367 on 1 procs (1 MPI x 1 OpenMP) for 5000 steps with 1200 atoms

Pair  time (%) = 0.271244 (9.34141)
Bond  time (%) = 2.28693 (78.7598)
Neigh time (%) = 0.00630474 (0.21713)
Comm  time (%) = 0.15864 (5.46344)
Outpt time (%) = 0.000134706 (0.00463918)
Other time (%) = 0.180422 (6.21357)

Nlocal:    1200 ave 1200 max 1200 min
Histogram: 1 0 0 0 0 0 0 0 0 0
Nghost:    6394 ave 6394 max 6394 min
Histogram: 1 0 0 0 0 0 0 0 0 0
Neighs:    0 ave 0 max 0 min
Histogram: 1 0 0 0 0 0 0 0 0 0

Total # of neighbors = 0
Ave neighs/atom = 0
Ave special neighs/atom = 5.25
Neighbor list builds = 25
Dangerous builds = 0

timestep	${timestep}
timestep	4
run_style	respa 3 2 2 bond 1 dihedral 2 pair 3
Respa levels:
  1 = bond angle
  2 = dihedral improper
  3 = pair kspace
write_restart	conf.bin.1
reset_timestep	0

fix		resZ all ave/time ${Nevery} ${Nrepeat} ${Nfreq} v_zFactor file zFactor.txt
fix		resZ all ave/time 250 ${Nrepeat} ${Nfreq} v_zFactor file zFactor.txt
fix		resZ all ave/time 250 125 ${Nfreq} v_zFactor file zFactor.txt
fix		resZ all ave/time 250 125 125000 v_zFactor file zFactor.txt
fix		resP all ave/time ${Nevery} ${Nrepeat} ${Nfreq} v_Press file press.txt
fix		resP all ave/time 250 ${Nrepeat} ${Nfreq} v_Press file press.txt
fix		resP all ave/time 250 125 ${Nfreq} v_Press file press.txt
fix		resP all ave/time 250 125 125000 v_Press file press.txt
fix 		resPe all ave/time ${Nevery} ${Nrepeat} ${Nfreq} v_peTot file pe.txt
fix 		resPe all ave/time 250 ${Nrepeat} ${Nfreq} v_peTot file pe.txt
fix 		resPe all ave/time 250 125 ${Nfreq} v_peTot file pe.txt
fix 		resPe all ave/time 250 125 125000 v_peTot file pe.txt
fix 		resEmol all ave/time ${Nevery} ${Nrepeat} ${Nfreq} v_eMol file eMol.txt
fix 		resEmol all ave/time 250 ${Nrepeat} ${Nfreq} v_eMol file eMol.txt
fix 		resEmol all ave/time 250 125 ${Nfreq} v_eMol file eMol.txt
fix 		resEmol all ave/time 250 125 125000 v_eMol file eMol.txt
fix		resUdep all ave/time ${Nevery} ${Nrepeat} ${Nfreq} v_uDep file uDep.txt
fix		resUdep all ave/time 250 ${Nrepeat} ${Nfreq} v_uDep file uDep.txt
fix		resUdep all ave/time 250 125 ${Nfreq} v_uDep file uDep.txt
fix		resUdep all ave/time 250 125 125000 v_uDep file uDep.txt

dump		1a all custom ${dumpFreq} dump.txt id mol type x y z
dump		1a all custom 1000000 dump.txt id mol type x y z
dump_modify	1a sort id

run		${RunPR}
run		3000000
Memory usage per processor = 11.5565 Mbytes
Step Elapsed Time CPULeft Temp Press PotEng KinEng TotEng E_vdwl E_mol E_coul Volume Density 
       0        0         1250            0    713.20484    5890.0142    667.63453    2548.9879    3216.6224   -1051.7269    1719.3614            0    40186.625    0.7079969 
    1000     1000         5250    6068.0924    681.45604    4285.2497    775.20159    2435.5179    3210.7195   -1094.9186    1870.1202            0    40186.625    0.7079969 
    2000     2000         9250    6105.6188    657.72795    3430.5871     734.6408    2350.7139    3085.3547   -1108.8624    1843.5032            0    40186.625    0.7079969 
    3000     3000        13250    6124.7769     689.1961    4480.7557    769.86532    2463.1808    3233.0461   -1095.4641    1865.3294            0    40186.625    0.7079969 
    4000     4000        17250    6133.7602    675.75217    4379.0636    831.39863    2415.1324     3246.531   -1137.7632    1969.1619            0    40186.625    0.7079969 
    5000     5000        21250    6138.6436     648.9985    3327.1695    877.01791     2319.515    3196.5329   -1097.7687    1974.7866            0    40186.625    0.7079969 
    6000     6000        25250    6143.9225    643.16241    3338.3909    712.83559    2298.6568    3011.4924   -1143.6798    1856.5154            0    40186.625    0.7079969 
    7000     7000        29250    6146.3499    649.82908    3328.3185    766.32972    2322.4834    3088.8132   -1117.1681    1883.4978            0    40186.625    0.7079969 
    8000     8000        33250    6142.8703    683.18137    5404.3176    761.90134    2441.6842    3203.5856   -1128.8362    1890.7375            0    40186.625    0.7079969 
    9000     9000        37250    6141.3086    654.34046    3609.4914    811.70871    2338.6071    3150.3158    -1114.181    1925.8897            0    40186.625    0.7079969 
   10000    10000        41250    6140.8871    654.49804    2840.7204    883.25805    2339.1703    3222.4283   -1084.5154    1967.7735            0    40186.625    0.7079969 
   11000    11000        45250    6139.9695    653.42018     3450.773    661.04107     2335.318    2996.3591   -1174.9067    1835.9478            0    40186.625    0.7079969 
   12000    12000        49250    6139.2083     662.8878    3005.8852    825.45606    2369.1552    3194.6112   -1119.9993    1945.4554            0    40186.625    0.7079969 
   13000    13000        53250     6136.501    664.01439    4003.2166    802.65904    2373.1816    3175.8406   -1139.3579     1942.017            0    40186.625    0.7079969 
   14000    14000        57250     6134.878    654.46382    4606.9863     709.4104     2339.048    3048.4584   -1098.9325    1808.3429            0    40186.625    0.7079969 
   15000    15000        61250    6133.5374    670.83403    4417.1335     864.0801    2397.5549     3261.635   -1105.8081    1969.8882            0    40186.625    0.7079969 
   16000    16000        65250    6133.1233    651.95004    3154.1697     891.4102    2330.0637    3221.4739   -1087.4824    1978.8926            0    40186.625    0.7079969 
   17000    17000        69250    6132.2111    633.84774    2302.8189    803.68538    2265.3663    3069.0516   -1156.3556     1960.041            0    40186.625    0.7079969 
   18000    18000        73250    6130.6563    654.98694      3900.55    871.83488    2340.9176    3212.7525    -1131.632    2003.4669            0    40186.625    0.7079969 
   19000    19000        77250    6128.0936    675.22841    3445.6068    805.57782    2413.2604    3218.8383     -1122.34    1927.9178            0    40186.625    0.7079969 
   20000    20000        81250    6125.6537    653.91768    2600.8278    784.76779    2337.0961    3121.8639   -1129.5517    1914.3195            0    40186.625    0.7079969 
   21000    21000        85250    6123.3931    651.28941    3702.7252    742.51045    2327.7027    3070.2131   -1148.9143    1891.4248            0    40186.625    0.7079969 
   22000    22000        89250    6121.3587    677.49529    2852.7482    724.97035    2421.3623    3146.3326   -1123.7477     1848.718            0    40186.625    0.7079969 
   23000    23000        93250     6120.257    684.71835    5327.0886    886.21635    2447.1774    3333.3938   -1061.1889    1947.4053            0    40186.625    0.7079969 
   24000    24000        97250    6117.7668    652.36961    3140.7211    785.48273    2331.5633     3117.046   -1109.2214    1894.7041            0    40186.625    0.7079969 
   25000    25000       101250    6115.5398    666.72783    3401.3407    862.00512    2382.8794    3244.8846   -1133.7375    1995.7426            0    40186.625    0.7079969 
   26000    26000       105250    6113.4044     651.4073    3483.0685    674.95101     2328.124     3003.075   -1138.0088    1812.9598            0    40186.625    0.7079969 
   27000    27000       109250    6111.1038    680.24353    4141.7101    866.55777    2431.1844    3297.7422   -1127.0785    1993.6363            0    40186.625    0.7079969 
   28000    28000       113250    6109.9206    655.87034    3564.8107      750.123    2344.0749    3094.1979   -1125.5851    1875.7081            0    40186.625    0.7079969 
   29000    29000       117250    6108.8931    681.63738    2829.1322    833.14705     2436.166    3269.3131   -1106.7205    1939.8676            0    40186.625    0.7079969 
   30000    30000       121250    6107.1943    675.91972    4691.7072    738.55063    2415.7312    3154.2818    -1114.743    1853.2936            0    40186.625    0.7079969 
   31000    31000       125250    6105.9649    682.25757    3263.4805     821.9011    2438.3826    3260.2837   -1060.9398    1882.8409            0    40186.625    0.7079969 
   32000    32000       129250    6104.6071    651.28114    4315.8809    824.56425    2327.6731    3152.2373   -1103.1696    1927.7338            0    40186.625    0.7079969 
   33000    33000       133250    6102.7938    651.14771     3339.613    789.00498    2327.1962    3116.2012   -1123.0744    1912.0793            0    40186.625    0.7079969 
   34000    34000       137250    6100.5894    649.09275    2980.3271    735.12921    2319.8518     3054.981   -1138.2062    1873.3354            0    40186.625    0.7079969 
   35000    35000       141250    6098.6168    672.02927    3943.4243     817.4032    2401.8267    3219.2299   -1126.9359    1944.3391            0    40186.625    0.7079969 
   36000    36000       145250    6096.4244    645.53586    3881.6521    823.68583    2307.1395    3130.8254   -1114.9014    1938.5872            0    40186.625    0.7079969 
   37000    37000       149250    6094.2351    640.94652    3397.1236    798.16998    2290.7373    3088.9072   -1136.5604    1934.7304            0    40186.625    0.7079969 
   38000    38000       153250     6092.168    647.11786    3293.6045    732.47524    2312.7936    3045.2688   -1137.9435    1870.4188            0    40186.625    0.7079969 
   39000    39000       157250    6090.0145    654.62139    3053.2965    807.41647    2339.6111    3147.0276   -1121.3023    1928.7188            0    40186.625    0.7079969 
   40000    40000       161250    6087.8351     666.6968    3495.3381    762.55387    2382.7685    3145.3224   -1102.1262      1864.68            0    40186.625    0.7079969 
   41000    41000       165250     6085.949    654.48264    4028.6647    769.63317    2339.1152    3108.7484   -1105.2778     1874.911            0    40186.625    0.7079969 
   42000    42000       169250    6084.0552    654.76494    3484.8191    803.95649    2340.1242    3144.0807   -1149.8674    1953.8239            0    40186.625    0.7079969 
   43000    43000       173250    6081.6789    645.44676    3293.2069    764.22135    2306.8211    3071.0424   -1151.8752    1916.0965            0    40186.625    0.7079969 
   44000    44000       177250    6079.4793    674.57367    4014.0614    735.40526    2410.9204    3146.3256   -1139.1981    1874.6034            0    40186.625    0.7079969 
   45000    45000       181250    6077.4063     652.6414    3891.5125    706.60968    2332.5346    3039.1443   -1106.8667    1813.4764            0    40186.625    0.7079969 
   46000    46000       185250    6075.2132    647.20504     3762.984    785.68883    2313.1052     3098.794   -1124.5358    1910.2246            0    40186.625    0.7079969 
   47000    47000       189250    6072.7856    622.04214    3704.3335    636.23795    2223.1732    2859.4111   -1160.3732    1796.6112            0    40186.625    0.7079969 
   48000    48000       193250    6070.4597    655.29216    4465.1961    720.05602    2342.0084    3062.0644   -1096.8402    1816.8963            0    40186.625    0.7079969 
   49000    49000       197250    6068.3368    682.48824    4036.6648    671.26702     2439.207     3110.474   -1119.0166    1790.2837            0    40186.625    0.7079969 
   50000    50000       201250    6066.5593    660.39588    2818.1366    706.10899    2360.2491    3066.3581   -1156.3229    1862.4319            0    40186.625    0.7079969 
   51000    51000       205250    6064.5347    657.16726    3442.9748    677.39448      2348.71    3026.1045   -1154.4047    1831.7991            0    40186.625    0.7079969 
   52000    52000       209250    6062.6676     675.4701    4028.8221    772.84836    2414.1242    3186.9726   -1100.0135    1872.8619            0    40186.625    0.7079969 
   53000    53000       213250    6060.7745    660.65089     3781.009    773.74776    2361.1605    3134.9083   -1128.1222      1901.87            0    40186.625    0.7079969 
   54000    54000       217250    6059.0057    665.25497    3451.4195    853.65833    2377.6154    3231.2738   -1091.0604    1944.7187            0    40186.625    0.7079969 
   55000    55000       221250    6056.9038    691.91012     3750.215    787.90163    2472.8807    3260.7823   -1131.6436    1919.5452            0    40186.625    0.7079969 
   56000    56000       225250    6054.8048    686.78137    3082.1415    863.75655    2454.5506    3318.3071   -1091.3841    1955.1407            0    40186.625    0.7079969 
   57000    57000       229250    6052.8568    643.53352    4138.7494    811.59695    2299.9832    3111.5801   -1117.6535    1929.2505            0    40186.625    0.7079969 
   58000    58000       233250    6050.4618    627.14484     3558.271    748.86776    2241.4102    2990.2779   -1130.2651    1879.1329            0    40186.625    0.7079969 
   59000    59000       237250    6048.2981    641.90587    2452.8125    755.13542    2294.1659    3049.3014   -1134.3803    1889.5157            0    40186.625    0.7079969 
   60000    60000       241250    6046.2139    653.61722    3766.4886    769.46102    2336.0222    3105.4832   -1142.6008    1912.0619            0    40186.625    0.7079969 
   61000    61000       245250    6044.0694    661.83929    5059.6516     828.7761    2365.4078    3194.1839   -1095.0042    1923.7803            0    40186.625    0.7079969 
   62000    62000       249250    6042.0333       634.47    3396.5035    881.89348    2267.5902    3149.4837   -1132.6325     2014.526            0    40186.625    0.7079969 
   63000    63000       253250    6040.2426    673.20792    4420.2795    657.68696    2406.0392    3063.7262   -1135.6887    1793.3756            0    40186.625    0.7079969 
   64000    64000       257250    6038.4266    681.78766    3236.8335    729.13398    2436.7031    3165.8371   -1183.2868    1912.4208            0    40186.625    0.7079969 
   65000    65000       261250    6036.4653    660.23155    2127.7259    782.33133    2359.6618    3141.9931   -1115.6649    1897.9962            0    40186.625    0.7079969 
   66000    66000       265250    6034.1058    644.66534    2373.3559    766.63613    2304.0283    3070.6644   -1152.0169     1918.653            0    40186.625    0.7079969 
   67000    67000       269250    6032.2229    666.11034    3359.7681    870.69845    2380.6725     3251.371    -1139.439    2010.1375            0    40186.625    0.7079969 
   68000    68000       273250    6030.1476    657.98755    5246.4736    785.51907    2351.6417    3137.1608   -1130.5551    1916.0742            0    40186.625    0.7079969 
   69000    69000       277250    6027.7976    653.80108    2682.5825    837.75022    2336.6793    3174.4296   -1182.5527    2020.3029            0    40186.625    0.7079969 
   70000    70000       281250    6025.3106    659.68069    3237.9262    810.17769     2357.693    3167.8707   -1108.8592    1919.0369            0    40186.625    0.7079969 
   71000    71000       285250    6022.8974    628.97579    3320.8481    784.19893     2247.954    3032.1529   -1113.3723    1897.5713            0    40186.625    0.7079969 
   72000    72000       289250    6020.9277     660.8561    4792.3683    772.67673    2361.8939    3134.5706   -1143.3125    1915.9893            0    40186.625    0.7079969 
   73000    73000       293250    6018.8168    668.63105    3222.1059    701.07443    2389.6815    3090.7559   -1146.3661    1847.4406            0    40186.625    0.7079969 
   74000    74000       297250    6016.7671    649.72839    4560.7561    799.53121    2322.1236    3121.6548   -1097.9514    1897.4826            0    40186.625    0.7079969 
   75000    75000       301250     6014.837    650.58149    5236.2149    703.90518    2325.1726    3029.0777    -1116.404    1820.3092            0    40186.625    0.7079969 
   76000    76000       305250      6013.03    635.40495    4115.3715    740.03471    2270.9317    3010.9664   -1128.0177    1868.0524            0    40186.625    0.7079969 
   77000    77000       309250    6011.0368    642.42728    4319.6646    837.41135    2296.0295    3133.4408   -1105.4241    1942.8354            0    40186.625    0.7079969 
   78000    78000       313250     6009.368    625.26568    3452.2954    771.77434    2234.6941    3006.4684   -1120.9334    1892.7078            0    40186.625    0.7079969 
   79000    79000       317250    6007.4244    659.56505    3317.8026    758.75321    2357.2797    3116.0329   -1134.3231    1893.0763            0    40186.625    0.7079969 
   80000    80000       321250    6005.2817    655.37195    4815.5802    811.02516    2342.2936    3153.3188   -1098.5725    1909.5977            0    40186.625    0.7079969 
   81000    81000       325250    6002.9555    664.94548    4233.7063    749.17724    2376.5093    3125.6866   -1149.4555    1898.6327            0    40186.625    0.7079969 
   82000    82000       329250    6000.7332     672.0269    4528.9632    806.40878    2401.8182     3208.227   -1097.3544    1903.7632            0    40186.625    0.7079969 
   83000    83000       333250    5998.6516    690.72702    3010.6279    758.27282    2468.6523    3226.9251   -1148.3219    1906.5947            0    40186.625    0.7079969 
   84000    84000       337250    5996.5343    664.70438    4294.2936    729.08187    2375.6476    3104.7295   -1154.5187    1883.6006            0    40186.625    0.7079969 
   85000    85000       341250    5994.6189    653.19326     3697.827    775.27408     2334.507    3109.7811   -1113.6961    1888.9701            0    40186.625    0.7079969 
   86000    86000       345250    5992.5713    648.07605    3785.7995    762.71853    2316.2181    3078.9367   -1141.8843    1904.6028            0    40186.625    0.7079969 
   87000    87000       349250    5990.4888    661.72653     3480.208    871.52761    2365.0048    3236.5324   -1129.6733    2001.2009            0    40186.625    0.7079969 
   88000    88000       353250    5988.3932    650.68424    3270.2288    757.75316    2325.5398     3083.293   -1097.4694    1855.2225            0    40186.625    0.7079969 
   89000    89000       357250    5986.3264    676.19818    3954.7574    816.71406    2416.7264    3233.4404   -1117.7497    1934.4637            0    40186.625    0.7079969 
   90000    90000       361250    5984.2486    644.98385    3186.2028    716.45453    2305.1666    3021.6212   -1141.5555    1858.0101            0    40186.625    0.7079969 
   91000    91000       365250    5981.9861    629.05951    4133.5751    747.81607    2248.2532    2996.0692   -1115.7967    1863.6127            0    40186.625    0.7079969 
   92000    92000       369250    5979.8387    678.19557    3517.1723    706.42607     2423.865    3130.2911   -1124.4337    1830.8598            0    40186.625    0.7079969 
   93000    93000       373250    5977.9874    669.34213    4406.0681    726.59729    2392.2229    3118.8202     -1103.49    1830.0873            0    40186.625    0.7079969 
   94000    94000       377250    5976.0272    630.43062    4357.6678    716.84742    2253.1535    2970.0009   -1105.6697    1822.5171            0    40186.625    0.7079969 
   95000    95000       381250     5973.822    637.63644    3507.2543    723.25315    2278.9071    3002.1602   -1116.4635    1839.7167            0    40186.625    0.7079969 
   96000    96000       385250    5971.7618    648.36951    3216.8903    749.73552     2317.267    3067.0025   -1156.6151    1906.3506            0    40186.625    0.7079969 
   97000    97000       389250    5969.7604    660.86085    3164.7363    776.78883    2361.9109    3138.6997   -1082.7678    1859.5567            0    40186.625    0.7079969 
   98000    98000       393250    5967.6965     648.0777    3554.9249    836.81481     2316.224    3153.0388   -1110.5019    1947.3167            0    40186.625    0.7079969 
   99000    99000       397250    5965.7742    628.44944    3886.6505    817.30167    2246.0728    3063.3745   -1113.0124     1930.314            0    40186.625    0.7079969 
  100000   100000       401250    5963.9229    639.94622    4669.4254    737.65046    2287.1622    3024.8127   -1108.8502    1846.5006            0    40186.625    0.7079969 
  101000   101000       405250    5961.9087    665.28217    4285.6249    777.94165    2377.7126    3155.6543   -1135.6484      1913.59            0    40186.625    0.7079969 
  102000   102000       409250    5959.9545    650.75065    3903.7655    679.17072    2325.7771    3004.9479   -1156.2621    1835.4328            0    40186.625    0.7079969 
  103000   103000       413250    5957.9639    659.17566    3283.9354     801.1171     2355.888    3157.0051   -1158.7965    1959.9136            0    40186.625    0.7079969 
  104000   104000       417250    5955.9014    687.23124    3112.1981    768.69488    2456.1584    3224.8533   -1112.4784    1881.1732            0    40186.625    0.7079969 
  105000   105000       421250    5953.7657    689.78288    3652.1453    748.01984     2465.278    3213.2978   -1142.6596    1890.6794            0    40186.625    0.7079969 
  106000   106000       425250    5951.7203    662.96542    3185.8741    717.85694    2369.4326    3087.2895   -1159.4871     1877.344            0    40186.625    0.7079969 
  107000   107000       429250    5949.8354    686.05153    3077.0253    742.63074    2451.9422    3194.5729   -1114.1264    1856.7571            0    40186.625    0.7079969 
  108000   108000       433250      5947.73    636.54645    2786.5859    714.10995    2275.0114    2989.1214   -1166.5927    1880.7027            0    40186.625    0.7079969 
  109000   109000       437250    5945.7602    661.86502    4706.0694    818.08357    2365.4998    3183.5834   -1113.7599    1931.8435            0    40186.625    0.7079969 
  110000   110000       441250    5943.7431    651.95446    3584.3913    692.03972    2330.0795    3022.1193    -1127.046    1819.0857            0    40186.625    0.7079969 
  111000   111000       445250    5941.8448    646.80102    3112.5402    703.85259    2311.6612    3015.5138   -1171.2197    1875.0723            0    40186.625    0.7079969 
  112000   112000       449250    5939.8915    661.33248    3032.3316    686.19541    2363.5965    3049.7919   -1173.3259    1859.5213            0    40186.625    0.7079969 
  113000   113000       453250    5937.8341    643.40578    3621.7767    875.63946    2299.5266    3175.1661   -1114.3451    1989.9845            0    40186.625    0.7079969 
  114000   114000       457250    5935.8404    636.02785    3758.4449    808.88573     2273.158    3082.0437   -1092.6417    1901.5275            0    40186.625    0.7079969 
  115000   115000       461250    5933.8286    648.64494    4506.1712    835.31112    2318.2513    3153.5625   -1091.8389      1927.15            0    40186.625    0.7079969 
  116000   116000       465250    5931.7812     644.4508    3247.0375    695.21113    2303.2615    2998.4726   -1145.2619     1840.473            0    40186.625    0.7079969 
  117000   117000       469250    5929.7562    681.75795    4209.0559    809.31239     2436.597    3245.9094   -1117.7046     1927.017            0    40186.625    0.7079969 
  118000   118000       473250    5927.7932    645.36059    3484.2122    690.50817    2306.5131    2997.0213   -1142.5595    1833.0677            0    40186.625    0.7079969 
  119000   119000       477250    5925.7904    655.12936    2857.0261    837.17467    2341.4266    3178.6013   -1127.7518    1964.9264            0    40186.625    0.7079969 
  120000   120000       481250    5923.7079    662.36379    4371.2189    802.85268    2367.2824    3170.1351   -1104.6354    1907.4881            0    40186.625    0.7079969 
  121000   121000       485250     5921.815    667.05408    3028.2278     714.9274    2384.0455    3098.9729   -1153.9484    1868.8758            0    40186.625    0.7079969 
  122000   122000       489250    5919.6518    656.36834    3369.0448    779.73131    2345.8547     3125.586   -1128.9269    1908.6582            0    40186.625    0.7079969 
  123000   123000       493250    5917.6613     648.3927    4491.4376    819.48766    2317.3498    3136.8375   -1099.7018    1919.1895            0    40186.625    0.7079969 
  124000   124000       497250    5915.7898    689.27822    4320.2166    771.60672    2463.4743     3235.081   -1139.2562    1910.8629            0    40186.625    0.7079969 
  125000   125000       501250    5913.7893     684.7011     4543.176    650.69893    2447.1157    3097.8147   -1145.0983    1795.7973            0    40186.625    0.7079969 
  126000   126000       505250    5911.8302    655.15938    3018.6009     836.3714    2341.5339    3177.9053   -1121.0234    1957.3948            0    40186.625    0.7079969 
  127000   127000       509250    5909.7266    627.62815    3756.6337    833.52412    2243.1375    3076.6617   -1118.1671    1951.6912            0    40186.625    0.7079969 
  128000   128000       513250    5907.7144    676.65608    3959.9349    698.69265    2418.3629    3117.0556   -1140.4008    1839.0934            0    40186.625    0.7079969 
  129000   129000       517250    5905.6351    636.55617    3708.9724    843.89474    2275.0462    3118.9409   -1125.6252      1969.52            0    40186.625    0.7079969 
  130000   130000       521250    5903.5861    654.08358    4051.3004    750.65325     2337.689    3088.3423   -1123.7399    1874.3931            0    40186.625    0.7079969 
  131000   131000       525250    5901.5779     659.2558    2947.0845    845.93834    2356.1745    3202.1128   -1122.7085    1968.6468            0    40186.625    0.7079969 
  132000   132000       529250    5899.5248    667.57245    4125.2963    784.26698    2385.8981    3170.1651   -1128.4738    1912.7408            0    40186.625    0.7079969 
  133000   133000       533250    5897.5943     671.3278    4277.7431     789.6644    2399.3197    3188.9841    -1119.112    1908.7764            0    40186.625    0.7079969 
  134000   134000       537250    5895.5876    643.15341     2948.244    795.99705    2298.6247    3094.6217   -1107.7979     1903.795            0    40186.625    0.7079969 
  135000   135000       541250    5893.5186    657.22644    3783.3514    777.91233    2348.9215    3126.8339   -1127.8973    1905.8096            0    40186.625    0.7079969 
  136000   136000       545250    5891.4967     659.3039    4345.9403    694.14492    2356.3464    3050.4913   -1108.2667    1802.4116            0    40186.625    0.7079969 
  137000   137000       549250    5889.5099    667.71066    3219.5782    695.88727    2386.3921    3082.2793   -1157.0209    1852.9082            0    40186.625    0.7079969 
  138000   138000       553250    5887.5054    665.44202    3693.0456    777.78238    2378.2839    3156.0663   -1139.0079    1916.7902            0    40186.625    0.7079969 
  139000   139000       557250    5885.4745     662.0093     3225.445    716.83189    2366.0154    3082.8473   -1122.0553    1838.8872            0    40186.625    0.7079969 
  140000   140000       561250    5883.6133    630.37577    3523.2072    764.72598    2252.9575    3017.6835   -1135.7884    1900.5144            0    40186.625    0.7079969 
  141000   141000       565250    5881.5222     665.7894    4958.3237    795.75007    2379.5255    3175.2755   -1126.3018    1922.0519            0    40186.625    0.7079969 
  142000   142000       569250    5879.4071    691.22976    3419.4811    876.07418    2470.4491    3346.5233   -1084.4009    1960.4751            0    40186.625    0.7079969 
  143000   143000       573250    5877.3405    645.22252    3102.4506      818.177    2306.0197    3124.1966   -1136.6188    1954.7958            0    40186.625    0.7079969 
  144000   144000       577250    5875.2665    653.50365    4169.5008    812.24054    2335.6163    3147.8569   -1114.8296    1927.0701            0    40186.625    0.7079969 
  145000   145000       581250    5873.1676    654.33125    4724.4778    770.47356    2338.5742    3109.0477   -1111.3431    1881.8167            0    40186.625    0.7079969 
  146000   146000       585250    5871.1039    653.00186    2427.8723    835.11197    2333.8229    3168.9349   -1106.3909    1941.5028            0    40186.625    0.7079969 
  147000   147000       589250    5868.9953    675.28197    2767.0699    809.63417    2413.4519     3223.086   -1154.7679    1964.4021            0    40186.625    0.7079969 
  148000   148000       593250    5866.8716    653.88939    2077.1703    688.06779    2336.9949    3025.0627    -1152.986    1841.0538            0    40186.625    0.7079969 
  149000   149000       597250     5864.754    660.29193    4468.4172    735.61883    2359.8776    3095.4964     -1138.26    1873.8789            0    40186.625    0.7079969 
  150000   150000       601250    5862.7372    650.97279    3560.8509    799.59929     2326.571    3126.1703   -1126.1851    1925.7844            0    40186.625    0.7079969 
  151000   151000       605250    5860.6565    653.47811    5145.6754    856.73172     2335.525    3192.2568    -1104.115    1960.8467            0    40186.625    0.7079969 
  152000   152000       609250      5858.58    662.60136    3786.4818    757.63251    2368.1315     3125.764   -1118.0176    1875.6501            0    40186.625    0.7079969 
  153000   153000       613250    5856.4818    662.89924    4158.7227    823.88657    2369.1961    3193.0826   -1124.8876    1948.7741            0    40186.625    0.7079969 
  154000   154000       617250    5854.4783     647.3999    3352.0212    855.25207    2313.8016    3169.0536   -1134.4647    1989.7168            0    40186.625    0.7079969 
  155000   155000       621250    5852.3404    644.57086    3168.2915    812.28433    2303.6906    3115.9749   -1112.7469    1925.0312            0    40186.625    0.7079969 
  156000   156000       625250    5850.2763     670.0462    3823.1345    801.14656    2394.7392    3195.8858   -1110.1244    1911.2709            0    40186.625    0.7079969 
  157000   157000       629250    5848.1979    660.61305    3245.2571    739.44754    2361.0252    3100.4728   -1154.2601    1893.7076            0    40186.625    0.7079969 
  158000   158000       633250    5846.0837     692.5392    3239.9248    791.46051     2475.129    3266.5896   -1123.7539    1915.2144            0    40186.625    0.7079969 
  159000   159000       637250     5844.002     670.3499    3397.8451    693.27898    2395.8247    3089.1037   -1142.4863    1835.7653            0    40186.625    0.7079969 
  160000   160000       641250    5841.9089    675.93473    3198.6665    755.24748    2415.7848    3171.0323   -1102.9006    1858.1481            0    40186.625    0.7079969 
  161000   161000       645250     5839.775    675.29449    3810.2811    705.24086    2413.4966    3118.7375   -1159.7574    1864.9983            0    40186.625    0.7079969 
  162000   162000       649250    5837.6975    663.61022     3452.377    732.20633    2371.7371    3103.9434   -1136.1233    1868.3296            0    40186.625    0.7079969 
  163000   163000       653250    5835.5506    664.74743      3377.17    738.32623    2375.8015    3114.1277   -1125.8685    1864.1947            0    40186.625    0.7079969 
  164000   164000       657250    5833.4288    647.15226    4618.2708    779.49633    2312.9165    3092.4128   -1134.4483    1913.9447            0    40186.625    0.7079969 
  165000   165000       661250    5831.3632    689.70138    3075.5248    723.53458    2464.9867    3188.5213   -1168.5912    1892.1258            0    40186.625    0.7079969 
  166000   166000       665250    5829.2131       663.55    2574.9693    818.58814    2371.5219      3190.11    -1108.128    1926.7162            0    40186.625    0.7079969 
  167000   167000       669250    5827.1197    644.94376    3959.1502    786.94069    2305.0234     3091.964   -1115.9474    1902.8881            0    40186.625    0.7079969 
  168000   168000       673250    5824.9418     670.6505    4896.5971    813.88037     2396.899    3210.7794   -1123.8466    1937.7269            0    40186.625    0.7079969 
  169000   169000       677250    5822.9126    687.79595    3224.7389    714.44639    2458.1767    3172.6231    -1140.492    1854.9384            0    40186.625    0.7079969 
  170000   170000       681250    5820.8343    683.24278    2330.0657    727.14854    2441.9037    3169.0523   -1141.2846    1868.4331            0    40186.625    0.7079969 
  171000   171000       685250    5818.7814    649.27508    3682.9588    791.37218    2320.5035    3111.8756   -1137.0344    1928.4065            0    40186.625    0.7079969 
  172000   172000       689250    5816.7435    650.89519    4124.5492    789.75213    2326.2937    3116.0458   -1109.3763    1899.1284            0    40186.625    0.7079969 
  173000   173000       693250      5814.65    685.68272    3234.8305    711.73716     2450.624    3162.3612   -1126.9698     1838.707            0    40186.625    0.7079969 
  174000   174000       697250    5812.5582    646.32354    3767.5176     739.7605    2309.9547    3049.7152   -1157.8121    1897.5726            0    40186.625    0.7079969 
  175000   175000       701250    5810.4656    646.71631    3098.2935    667.90385    2311.3584    2979.2623   -1091.5058    1759.4096            0    40186.625    0.7079969 
  176000   176000       705250    5808.3453    640.12515    4458.1541    706.17911    2287.8017    2993.9808   -1132.3436    1838.5227            0    40186.625    0.7079969 
  177000   177000       709250    5806.2998    645.24434    3873.2756    696.45256    2306.0976    3002.5502   -1138.8762    1835.3288            0    40186.625    0.7079969 
  178000   178000       713250    5804.2782    662.90781    2728.7598    763.01545    2369.2267    3132.2421   -1149.8264    1912.8418            0    40186.625    0.7079969 
  179000   179000       717250    5802.2142     649.5973    4310.5461    800.32466    2321.6551    3121.9797   -1107.7957    1908.1204            0    40186.625    0.7079969 
  180000   180000       721250    5800.2241    678.68118    3269.3521    754.13187    2425.6006    3179.7325   -1129.9698    1884.1017            0    40186.625    0.7079969 
  181000   181000       725250    5798.0942    635.42441    4407.1853    750.65623    2271.0013    3021.6575   -1120.0336    1870.6898            0    40186.625    0.7079969 
  182000   182000       729250    5795.8985     682.0068    4736.8085    835.61626    2437.4863    3273.1026   -1101.9377     1937.554            0    40186.625    0.7079969 
  183000   183000       733250    5793.8695    625.35998    3495.0302    700.83669    2235.0311    2935.8678   -1120.0292    1820.8659            0    40186.625    0.7079969 
  184000   184000       737250    5791.6442    667.28182    3406.4197    658.36238    2384.8594    3043.2218   -1118.9208    1777.2832            0    40186.625    0.7079969 
  185000   185000       741250    5789.6029    641.32018    3313.6379    798.22051    2292.0727    3090.2932   -1114.5439    1912.7644            0    40186.625    0.7079969 
  186000   186000       745250    5787.5666    676.48953    3223.3159     669.3545    2417.7677    3087.1222   -1141.4659    1810.8204            0    40186.625    0.7079969 
  187000   187000       749250    5785.4536    637.17191    2418.1795    660.59954    2277.2468    2937.8464   -1169.6555     1830.255            0    40186.625    0.7079969 
  188000   188000       753250    5783.4459    655.65258    4369.2618     778.3163    2343.2966    3121.6129   -1118.8551    1897.1714            0    40186.625    0.7079969 
  189000   189000       757250    5781.4519    645.94027    4344.2054    708.98322    2308.5849    3017.5681   -1125.5976    1834.5808            0    40186.625    0.7079969 
  190000   190000       761250    5779.3671    659.24905    3106.0727    763.38356    2356.1503    3119.5339   -1123.6883    1887.0718            0    40186.625    0.7079969 
  191000   191000       765250    5777.2784    661.73066    4241.3157    792.08507    2365.0196    3157.1047   -1094.5726    1886.6576            0    40186.625    0.7079969 
  192000   192000       769250    5775.2166    617.26978    4513.1401    739.00281    2206.1168    2945.1196   -1126.9178    1865.9206            0    40186.625    0.7079969 
  193000   193000       773250    5773.0819    655.73526     3566.735    801.29154    2343.5921    3144.8836   -1119.5984      1920.89            0    40186.625    0.7079969 
  194000   194000       777250     5770.965    666.68394    3508.0593    745.61259    2382.7226    3128.3352    -1149.363    1894.9756            0    40186.625    0.7079969 
  195000   195000       781250    5768.9131    638.13213    3702.0947    786.59331    2280.6787     3067.272   -1128.0324    1914.6257            0    40186.625    0.7079969 
  196000   196000       785250    5766.8368     657.1133    4662.2182    770.83346    2348.5172    3119.3506   -1072.7468    1843.5803            0    40186.625    0.7079969 
  197000   197000       789250     5764.738    654.63539    4455.4863    755.20467    2339.6611    3094.8658   -1124.4766    1879.6812            0    40186.625    0.7079969 
  198000   198000       793250    5762.6864    641.19644    3487.6886     725.3512    2291.6305    3016.9817   -1120.9169    1846.2681            0    40186.625    0.7079969 
  199000   199000       797250    5760.6756    666.56405    4556.5929    700.82519    2382.2941    3083.1193   -1112.7325    1813.5577            0    40186.625    0.7079969 
  200000   200000       801250    5758.5037    656.55583     4681.061    767.43447    2346.5248    3113.9593   -1101.3012    1868.7356            0    40186.625    0.7079969 
  201000   201000       805250    5756.3456    648.40028    3189.0282    799.56784    2317.3769    3116.9448   -1136.9036    1936.4715            0    40186.625    0.7079969 
  202000   202000       809250    5754.1718    644.91838    2563.5399    738.22336    2304.9327     3043.156   -1135.3241    1873.5474            0    40186.625    0.7079969 
  203000   203000       813250    5752.1068    665.42622    4632.8672    837.51079    2378.2275    3215.7383    -1090.062    1927.5728            0    40186.625    0.7079969 
  204000   204000       817250    5749.9763    635.92115    4349.8236    760.55555    2272.7766    3033.3322   -1122.9554    1883.5109            0    40186.625    0.7079969 
  205000   205000       821250    5747.8816     662.7871     3465.499    736.73738    2368.7953    3105.5327   -1157.9475    1894.6849            0    40186.625    0.7079969 
  206000   206000       825250    5745.7996    662.28775    3453.8968    855.96057    2367.0106    3222.9712   -1141.6573    1997.6178            0    40186.625    0.7079969 
  207000   207000       829250     5743.718    647.52603    3721.8204    850.75321    2314.2524    3165.0056   -1146.5449    1997.2981            0    40186.625    0.7079969 
  208000   208000       833250    5741.5498    661.69523    4308.0184     723.4401     2364.893    3088.3331   -1159.4102    1882.8503            0    40186.625    0.7079969 
  209000   209000       837250    5739.4094    691.94496    4465.1597    708.05217    2473.0052    3181.0574   -1107.6865    1815.7387            0    40186.625    0.7079969 
  210000   210000       841250    5737.3503    651.27271    3503.0517     689.4775     2327.643    3017.1205   -1148.0662    1837.5437            0    40186.625    0.7079969 
  211000   211000       845250    5735.3151    671.03882    3914.1224    811.86273    2398.2869    3210.1496   -1134.6459    1946.5086            0    40186.625    0.7079969 
  212000   212000       849250    5733.2034    679.25744     3838.687    816.48308    2427.6602    3244.1432   -1127.7184    1944.2015            0    40186.625    0.7079969 
  213000   213000       853250    5731.0927    628.30021    4032.7485    717.75344    2245.5395    2963.2929   -1088.1309    1805.8843            0    40186.625    0.7079969 
  214000   214000       857250     5729.038    672.62253    3305.9708    757.53493     2403.947    3161.4819   -1144.0884    1901.6233            0    40186.625    0.7079969 
  215000   215000       861250    5727.0114    659.35816    3138.6038    695.41076    2356.5403    3051.9511   -1129.5002    1824.9109            0    40186.625    0.7079969 
  216000   216000       865250    5724.9342     669.4816    4412.1263    766.67241    2392.7214    3159.3938   -1152.4177    1919.0901            0    40186.625    0.7079969 
  217000   217000       869250    5722.9005    669.71597    3025.1796    732.83966     2393.559    3126.3987   -1160.0014    1892.8411            0    40186.625    0.7079969 
  218000   218000       873250    5720.7983    675.61505    4050.9099    711.52033    2414.6423    3126.1626    -1120.935    1832.4553            0    40186.625    0.7079969 
  219000   219000       877250    5718.7048      650.551    3257.3434    700.72166    2325.0636    3025.7852   -1152.3059    1853.0276            0    40186.625    0.7079969 
  220000   220000       881250    5716.6236    675.28083    2939.2713    708.91705    2413.4478    3122.3648   -1155.7731    1864.6902            0    40186.625    0.7079969 
  221000   221000       885250    5714.5471    655.34552    2488.9982      822.091    2342.1991    3164.2901   -1122.9256    1945.0166            0    40186.625    0.7079969 
  222000   222000       889250    5712.4439    661.87113    2890.0747    781.68175    2365.5216    3147.2034   -1115.4496    1897.1314            0    40186.625    0.7079969 
  223000   223000       893250    5710.2853     683.1735    3452.8113    714.30405    2441.6561    3155.9602   -1151.0974    1865.4015            0    40186.625    0.7079969 
  224000   224000       897250    5708.1694    658.22361    4029.0866    732.83674    2352.4854    3085.3222   -1101.4421    1834.2788            0    40186.625    0.7079969 
  225000   225000       901250    5706.0155    675.49507    4978.9629    678.94286    2414.2135    3093.1563   -1129.3269    1808.2697            0    40186.625    0.7079969 
  226000   226000       905250    5704.0029    670.70147     3594.679    708.95169    2397.0812    3106.0329   -1133.9497    1842.9014            0    40186.625    0.7079969 
  227000   227000       909250    5701.8913    653.47691    3911.7858    872.91954    2335.5208    3208.4403    -1114.625    1987.5445            0    40186.625    0.7079969 
  228000   228000       913250    5699.8569    634.50199    3133.8909    753.86427    2267.7045    3021.5688   -1105.8799    1859.7442            0    40186.625    0.7079969 
  229000   229000       917250    5697.7467    685.50768    3206.4799    758.20041    2449.9985    3208.1989   -1110.6848    1868.8852            0    40186.625    0.7079969 
  230000   230000       921250    5695.6307    648.12872    2995.7023    732.36491    2316.4064    3048.7713   -1111.6841     1844.049            0    40186.625    0.7079969 
  231000   231000       925250     5693.543    680.35314    5291.9115     709.3129    2431.5762    3140.8891   -1126.9705    1836.2834            0    40186.625    0.7079969 
  232000   232000       929250    5691.4718     671.8948    3302.8138    762.65895    2401.3461    3164.0051   -1138.9207    1901.5796            0    40186.625    0.7079969 
  233000   233000       933250    5689.4694    680.15153    3547.4286    835.38269    2430.8556    3266.2383   -1119.4606    1954.8433            0    40186.625    0.7079969 
  234000   234000       937250    5687.4062    672.03981    3365.1238    788.10281    2401.8644    3189.9672   -1125.6361     1913.739            0    40186.625    0.7079969 
  235000   235000       941250    5685.3718     684.2921    3629.6802     790.1321     2445.654    3235.7861   -1143.3392    1933.4713            0    40186.625    0.7079969 
  236000   236000       945250    5683.2526     674.8314    3408.8734    824.26081    2411.8415    3236.1023     -1108.18    1932.4408            0    40186.625    0.7079969 
  237000   237000       949250    5681.1591    668.18815    5027.5888    866.21207    2388.0986    3254.3107   -1115.5136    1981.7257            0    40186.625    0.7079969 
  238000   238000       953250    5679.1126    628.79608    3746.6502    833.38135    2247.3117     3080.693   -1105.6874    1939.0688            0    40186.625    0.7079969 
  239000   239000       957250    5677.0152    650.14863     4047.602    691.15122    2323.6255    3014.7767   -1135.9921    1827.1433            0    40186.625    0.7079969 
  240000   240000       961250    5674.9605    656.46515    4996.7999    764.74582    2346.2007    3110.9465   -1096.9869    1861.7328            0    40186.625    0.7079969 
  241000   241000       965250    5672.8277    634.87491    3977.4346    809.30791    2269.0374    3078.3453   -1091.2263    1900.5342            0    40186.625    0.7079969 
  242000   242000       969250    5670.7367    659.67059    4634.0927     777.8771    2357.6569     3135.534   -1126.5386    1904.4157            0    40186.625    0.7079969 
  243000   243000       973250    5668.5913    674.62364    3057.3821    853.27466     2411.099    3264.3736    -1137.485    1990.7597            0    40186.625    0.7079969 
  244000   244000       977250    5666.5149    658.84595    3301.7263    765.53874    2354.7097    3120.2484   -1132.7601    1898.2988            0    40186.625    0.7079969 
  245000   245000       981250    5664.3682    690.91975    3591.5967    716.38361    2469.3412    3185.7248   -1141.1379    1857.5216            0    40186.625    0.7079969 
  246000   246000       985250    5662.2359    678.01605    2669.0484    754.33731    2423.2234    3177.5607   -1146.8867     1901.224            0    40186.625    0.7079969 
  247000   247000       989250    5660.1272    676.86045    3166.1045    832.19494    2419.0933    3251.2883   -1143.6016    1975.7966            0    40186.625    0.7079969 
  248000   248000       993250    5657.9423    652.04206    3030.2594    745.37647    2330.3926    3075.7691   -1162.5603    1907.9368            0    40186.625    0.7079969 
  249000   249000       997250    5655.8116    688.55153    3893.9025    844.10072    2460.8771    3304.9779   -1114.6915    1958.7923            0    40186.625    0.7079969 
  250000   250000      1001250    5653.6853    626.38065    2414.2012    765.73439     2238.679    3004.4134   -1140.1644    1905.8988            0    40186.625    0.7079969 
  251000   251000      1005250    5651.5259    629.29196    2978.0286    733.99889     2249.084    2983.0829   -1128.0444    1862.0432            0    40186.625    0.7079969 
  252000   252000      1009250    5649.3606    653.62608    3754.5006    688.58905    2336.0539    3024.6429   -1144.4866    1833.0756            0    40186.625    0.7079969 
  253000   253000      1013250    5647.1812    633.24121    4687.3812    746.74293    2263.1986    3009.9415   -1128.0988    1874.8417            0    40186.625    0.7079969 
  254000   254000      1017250    5645.0011    661.10401    2877.6027    761.28135    2362.7799    3124.0613   -1135.4542    1896.7355            0    40186.625    0.7079969 
  255000   255000      1021250    5642.9257    646.64839    4032.2782    764.65411    2311.1157    3075.7698   -1131.8312    1896.4853            0    40186.625    0.7079969 
  256000   256000      1025250    5640.8237    651.22465    3816.8869    744.81608    2327.4712    3072.2873   -1142.7667    1887.5827            0    40186.625    0.7079969 
  257000   257000      1029250     5638.705    677.18196    5099.6016     787.7525    2420.2424    3207.9949   -1152.2775      1940.03            0    40186.625    0.7079969 
  258000   258000      1033250    5636.5232    698.43101    4637.1939    741.35203    2496.1863    3237.5384   -1136.3472    1877.6992            0    40186.625    0.7079969 
  259000   259000      1037250    5634.3136    666.83451    3881.6271    735.57006    2383.2607    3118.8308   -1138.7231    1874.2931            0    40186.625    0.7079969 
  260000   260000      1041250    5632.1418    679.50316    3339.9335     788.2475    2428.5384    3216.7859   -1132.2973    1920.5448            0    40186.625    0.7079969 
  261000   261000      1045250    5630.0419    655.48041    4200.8718    831.19954    2342.6813    3173.8808   -1091.3629    1922.5625            0    40186.625    0.7079969 
  262000   262000      1049250    5627.9238    637.95981    3694.1392    770.18605    2280.0628    3050.2488   -1139.2322    1909.4182            0    40186.625    0.7079969 
  263000   263000      1053250    5625.7941    657.84884    3502.0855    710.81365     2351.146    3061.9596   -1152.0983    1862.9119            0    40186.625    0.7079969 
  264000   264000      1057250    5623.6537    647.59068    3167.5015    805.42715    2314.4834    3119.9106   -1116.8492    1922.2764            0    40186.625    0.7079969 
  265000   265000      1061250    5621.4608    668.07186    2973.3859    730.39098     2387.683     3118.074    -1144.202     1874.593            0    40186.625    0.7079969 
  266000   266000      1065250    5619.3466    651.16469    3163.0905    702.98913    2327.2569     3030.246   -1095.5576    1798.5467            0    40186.625    0.7079969 
  267000   267000      1069250    5617.2303    658.37029    3698.2372    782.80114    2353.0097    3135.8108   -1127.8805    1910.6816            0    40186.625    0.7079969 
  268000   268000      1073250    5615.0392    650.04427    4328.1707    831.33483    2323.2525    3154.5874   -1084.8712     1916.206            0    40186.625    0.7079969 
  269000   269000      1077250    5612.9261    666.90458    4368.1624    790.88449    2383.5111    3174.3956   -1140.7434    1931.6279            0    40186.625    0.7079969 
  270000   270000      1081250    5610.8094    648.66447     4265.562    743.09731    2318.3212    3061.4185   -1109.5902    1852.6875            0    40186.625    0.7079969 
  271000   271000      1085250    5608.6712    679.29917    3919.4865    716.37919    2427.8093    3144.1885   -1143.6559    1860.0351            0    40186.625    0.7079969 
  272000   272000      1089250    5606.4726    670.32003    5115.7449     736.8875    2395.7179    3132.6054   -1107.1266    1844.0141            0    40186.625    0.7079969 
  273000   273000      1093250    5604.2907    655.48241    2950.0339     712.8996    2342.6884     3055.588   -1157.7904      1870.69            0    40186.625    0.7079969 
  274000   274000      1097250    5602.1673    654.04941    3378.5896    757.73692    2337.5669    3095.3038   -1117.8281     1875.565            0    40186.625    0.7079969 
  275000   275000      1101250    5600.0566    659.06574    3943.1429    702.71041    2355.4952    3058.2056   -1107.2509    1809.9613            0    40186.625    0.7079969 
  276000   276000      1105250    5597.9535    650.32372    5038.0629    737.44187    2324.2513    3061.6931   -1120.0549    1857.4968            0    40186.625    0.7079969 
  277000   277000      1109250    5595.8618    670.73696    4538.1369    754.09416     2397.208    3151.3022   -1147.8665    1901.9606            0    40186.625    0.7079969 
  278000   278000      1113250    5593.6941    662.95767    3571.9785    833.80215    2369.4049    3203.2071   -1094.3808    1928.1829            0    40186.625    0.7079969 
  279000   279000      1117250    5591.5163    646.86714    2361.8599    745.41094    2311.8975    3057.3084   -1113.7635    1859.1744            0    40186.625    0.7079969 
  280000   280000      1121250    5589.3249    669.83263     2559.563    911.05354    2393.9759    3305.0295   -1077.0063    1988.0598            0    40186.625    0.7079969 
  281000   281000      1125250    5587.1821    680.70792    3963.4201    693.80477    2432.8441    3126.6489   -1140.5916    1834.3964            0    40186.625    0.7079969 
  282000   282000      1129250    5585.0501    646.16213    3622.8442     845.0989    2309.3778    3154.4767   -1100.9956    1946.0945            0    40186.625    0.7079969 
  283000   283000      1133250    5582.9133    680.22928    3473.7797    688.52503    2431.1335    3119.6585   -1129.3369     1817.862            0    40186.625    0.7079969 
  284000   284000      1137250    5580.7441    668.33978    4492.6391    853.26028    2388.6405    3241.9008   -1125.9488    1979.2091            0    40186.625    0.7079969 
  285000   285000      1141250     5578.622    642.50582    3365.5484    726.66753    2296.3102    3022.9777    -1133.108    1859.7755            0    40186.625    0.7079969 
  286000   286000      1145250    5576.4598    653.64896    3488.1667    725.46983    2336.1357    3061.6055   -1171.3381     1896.808            0    40186.625    0.7079969 
  287000   287000      1149250     5574.306    637.32668    4055.4347    805.46471       2277.8    3083.2647   -1117.8286    1923.2933            0    40186.625    0.7079969 
  288000   288000      1153250    5572.1693    660.79572    3679.0575    827.95825    2361.6781    3189.6364    -1138.806    1966.7642            0    40186.625    0.7079969 
  289000   289000      1157250    5570.0132    664.25015    3108.2059    785.98117    2374.0242    3160.0054   -1129.6403    1915.6215            0    40186.625    0.7079969 
  290000   290000      1161250    5567.8866    683.71104    3925.5238    767.72547    2443.5773    3211.3027   -1122.5328    1890.2583            0    40186.625    0.7079969 
  291000   291000      1165250    5565.7779    670.78367     3731.119    785.95919     2397.375    3183.3342    -1117.217    1903.1761            0    40186.625    0.7079969 
  292000   292000      1169250     5563.706    662.87365    3799.2631    717.78628    2369.1046    3086.8909   -1110.1271    1827.9134            0    40186.625    0.7079969 
  293000   293000      1173250    5561.5346    634.51435    3611.7626     617.9293    2267.7487     2885.678   -1144.8687     1762.798            0    40186.625    0.7079969 
  294000   294000      1177250    5559.3639    667.24201    3427.3991    812.37177    2384.7171    3197.0889   -1120.9767    1933.3484            0    40186.625    0.7079969 
  295000   295000      1181250    5557.2676    657.89867    3237.5105    795.57822    2351.3241    3146.9023    -1121.473    1917.0512            0    40186.625    0.7079969 
  296000   296000      1185250    5555.1893    676.51963    3923.7971    682.30285    2417.8752    3100.1781   -1162.5627    1844.8656            0    40186.625    0.7079969 
  297000   297000      1189250    5553.0319    652.65961    4237.6162    786.17239    2332.5997    3118.7721    -1100.014    1886.1864            0    40186.625    0.7079969 
  298000   298000      1193250    5550.9143     648.1754    3552.6998    757.91818    2316.5732    3074.4914    -1103.316    1861.2341            0    40186.625    0.7079969 
  299000   299000      1197250    5548.7738    669.77685    3675.7804    747.18738    2393.7766     3140.964   -1108.7211    1855.9085            0    40186.625    0.7079969 
  300000   300000      1201250    5546.6213    685.83749    3885.3563    809.21825    2451.1772    3260.3955   -1124.7685    1933.9868            0    40186.625    0.7079969 
  301000   301000      1205250    5544.4858    654.50981    2758.6301    818.68934    2339.2123    3157.9017   -1121.6557     1940.345            0    40186.625    0.7079969 
  302000   302000      1209250    5542.3438    642.42246    3321.5748    730.71151    2296.0122    3026.7238   -1133.1464     1863.858            0    40186.625    0.7079969 
  303000   303000      1213250    5540.2172     691.6446    4574.4996     800.1554    2471.9317    3272.0871   -1104.1717    1904.3271            0    40186.625    0.7079969 
  304000   304000      1217250    5538.0991     668.4141    4404.6507    758.66504    2388.9061    3147.5712   -1134.8348    1893.4999            0    40186.625    0.7079969 
  305000   305000      1221250    5535.9052     668.3232    3202.7659    745.03354    2388.5813    3133.6148   -1128.8584    1873.8919            0    40186.625    0.7079969 
  306000   306000      1225250    5533.7904    686.64796    4623.5252    684.46502    2454.0738    3138.5388   -1124.7585    1809.2235            0    40186.625    0.7079969 
  307000   307000      1229250    5531.6307    689.12288    5738.9584    745.16786    2462.9191     3208.087   -1149.4093    1894.5771            0    40186.625    0.7079969 
  308000   308000      1233250     5529.582    664.27631     4605.029    758.08955    2374.1177    3132.2073   -1101.2624    1859.3519            0    40186.625    0.7079969 
  309000   309000      1237250    5527.5435    654.97249    2458.3593    702.70439    2340.8659    3043.5703   -1137.0344    1839.7388            0    40186.625    0.7079969 
  310000   310000      1241250    5525.4079    652.89325    2845.8404    752.69127    2333.4348     3086.126   -1122.6598     1875.351            0    40186.625    0.7079969 
  311000   311000      1245250    5523.3396    643.23155    3608.7457    722.74101    2298.9039    3021.6449   -1143.5162    1866.2573            0    40186.625    0.7079969 
  312000   312000      1249250    5521.2897     652.2339    4289.9455    661.79442    2331.0783    2992.8727    -1133.611    1795.4054            0    40186.625    0.7079969 
  313000   313000      1253250    5519.2327     662.5387    4248.3845    715.79115    2367.9075    3083.6987   -1160.5898    1876.3809            0    40186.625    0.7079969 
  314000   314000      1257250    5517.1718    680.58247     3440.743    810.31112    2432.3958    3242.7069   -1125.1241    1935.4352            0    40186.625    0.7079969 
  315000   315000      1261250    5515.0794    658.76555    3096.0061    772.27534    2354.4223    3126.6977   -1126.5566    1898.8319            0    40186.625    0.7079969 
  316000   316000      1265250    5512.9993    683.45186    4244.1165    798.64785     2442.651    3241.2988   -1109.3352    1907.9831            0    40186.625    0.7079969 
  317000   317000      1269250    5510.8944    673.51423    4127.5874    837.30701     2407.134     3244.441   -1126.6799    1963.9869            0    40186.625    0.7079969 
  318000   318000      1273250    5508.8125    647.70409    3389.6451    778.88661    2314.8887    3093.7754   -1123.4153    1902.3019            0    40186.625    0.7079969 
  319000   319000      1277250    5506.7604    663.81959    4080.7385    777.89264    2372.4854    3150.3781    -1123.583    1901.4756            0    40186.625    0.7079969 
  320000   320000      1281250    5504.6301    653.87347    3079.4624    864.59486    2336.9381    3201.5329    -1132.962    1997.5569            0    40186.625    0.7079969 
  321000   321000      1285250    5502.4897    674.33474     2166.471    809.63601    2410.0665    3219.7025   -1136.1375    1945.7735            0    40186.625    0.7079969 
  322000   322000      1289250    5500.3767    645.40221    3789.4499    748.48439    2306.6619    3055.1463   -1126.9395    1875.4239            0    40186.625    0.7079969 
  323000   323000      1293250    5498.2815    677.28217    3023.9897    685.09586    2420.6005    3105.6964   -1139.2432    1824.3391            0    40186.625    0.7079969 
  324000   324000      1297250    5496.2271    673.26346    4347.9446    709.21296    2406.2377    3115.4507   -1122.2099    1831.4229            0    40186.625    0.7079969 
  325000   325000      1301250    5494.0908    651.50744    3857.5891    813.58379    2328.4819    3142.0657   -1108.9716    1922.5554            0    40186.625    0.7079969 
  326000   326000      1305250    5491.9768    679.79193     3139.141      723.444    2429.5704    3153.0144   -1117.0115    1840.4555            0    40186.625    0.7079969 
  327000   327000      1309250    5489.8751    666.64001    3318.4159    802.92053    2382.5656    3185.4861   -1143.1633    1946.0838            0    40186.625    0.7079969 
  328000   328000      1313250    5487.7559    645.65822    2224.2809    809.47301    2307.5768    3117.0498   -1100.8971    1910.3701            0    40186.625    0.7079969 
  329000   329000      1317250     5485.595    654.61157     4381.451     707.8604     2339.576    3047.4364   -1125.1246     1832.985            0    40186.625    0.7079969 
  330000   330000      1321250    5483.4292    676.53587    4295.6482    833.05158    2417.9333    3250.9849   -1104.4215     1937.473            0    40186.625    0.7079969 
  331000   331000      1325250    5481.2886    673.08001     4842.585     701.8346    2405.5821    3107.4167   -1151.2476    1853.0822            0    40186.625    0.7079969 
  332000   332000      1329250    5479.1445     660.4911    4701.2085    756.51781    2360.5894    3117.1072   -1152.9698    1909.4877            0    40186.625    0.7079969 
  333000   333000      1333250    5477.0368     673.3704    3544.4737    653.16954    2406.6199    3059.7895   -1178.9181    1832.0877            0    40186.625    0.7079969 
  334000   334000      1337250    5474.9347    663.72368    5043.9676    846.09443    2372.1426    3218.2371   -1101.9401    1948.0345            0    40186.625    0.7079969 
  335000   335000      1341250     5472.799    669.60292    3182.1788    745.75075     2393.155    3138.9057   -1121.6614    1867.4122            0    40186.625    0.7079969 
  336000   336000      1345250    5470.7162    649.86929    3154.1832     824.5291    2322.6272    3147.1563   -1143.6992    1968.2283            0    40186.625    0.7079969 
  337000   337000      1349250    5468.6174    649.48442    3382.7495    657.39976    2321.2516    2978.6514   -1169.9724    1827.3722            0    40186.625    0.7079969 
  338000   338000      1353250     5466.533    663.38094    3522.7335    809.68256    2370.9177    3180.6002   -1162.4435    1972.1261            0    40186.625    0.7079969 
  339000   339000      1357250    5464.4552     717.5762    3353.7611    763.33336     2564.611    3327.9444   -1131.3263    1894.6596            0    40186.625    0.7079969 
  340000   340000      1361250    5462.3915    623.02682    4024.1518    751.37621    2226.6924    2978.0686   -1158.1873    1909.5635            0    40186.625    0.7079969 
  341000   341000      1365250    5460.2537     633.6511    1937.5579    737.57661    2264.6635    3002.2401   -1164.2408    1901.8175            0    40186.625    0.7079969 
  342000   342000      1369250    5458.1489    643.28875     3734.175    820.00075    2299.1084    3119.1091   -1105.0965    1925.0973            0    40186.625    0.7079969 
  343000   343000      1373250    5456.0553    670.86818    4304.5147    684.32402     2397.677     3082.001   -1151.8692    1836.1933            0    40186.625    0.7079969 
  344000   344000      1377250    5453.9647    656.26023    2934.5012    846.99469    2345.4683     3192.463   -1104.6604    1951.6551            0    40186.625    0.7079969 
  345000   345000      1381250    5451.8835    679.12111    3118.0576     724.1993    2427.1729    3151.3722   -1144.5227     1868.722            0    40186.625    0.7079969 
  346000   346000      1385250    5449.7673    655.17625    3316.9349     768.8986    2341.5942    3110.4928   -1118.3249    1887.2235            0    40186.625    0.7079969 
  347000   347000      1389250    5447.6831    656.52644     3376.247    878.67806    2346.4198    3225.0978   -1101.4438    1980.1219            0    40186.625    0.7079969 
  348000   348000      1393250    5445.6101     686.2606    2924.4702    671.19406    2452.6894    3123.8834   -1136.0488    1807.2428            0    40186.625    0.7079969 
  349000   349000      1397250    5443.5709     653.3967    3941.9446    830.84818    2335.2341    3166.0823   -1126.2635    1957.1117            0    40186.625    0.7079969 
  350000   350000      1401250    5441.5213    653.12856    4227.6951    799.08416    2334.2758    3133.3599   -1133.4487    1932.5328            0    40186.625    0.7079969 
  351000   351000      1405250     5439.453    679.24374    4383.6831    825.63504    2427.6112    3253.2462   -1113.3027    1938.9377            0    40186.625    0.7079969 
  352000   352000      1409250    5437.4155    662.78207    3859.9431    799.75061    2368.7773    3168.5279   -1132.3403    1932.0909            0    40186.625    0.7079969 
  353000   353000      1413250    5435.3453    655.98522    3041.4087    771.05538    2344.4854    3115.5408   -1127.1342    1898.1896            0    40186.625    0.7079969 
  354000   354000      1417250    5433.2937    642.80069    2974.9453    847.96511     2297.364    3145.3292   -1129.6562    1977.6213            0    40186.625    0.7079969 
  355000   355000      1421250    5431.1745    639.34468    3711.4225    824.58644    2285.0123    3109.5987   -1108.1891    1932.7755            0    40186.625    0.7079969 
  356000   356000      1425250    5429.0846    669.73709    3714.0538    763.57613    2393.6345    3157.2106   -1138.0563    1901.6324            0    40186.625    0.7079969 
  357000   357000      1429250    5426.9584    667.81111    2960.8668    758.45893    2386.7511      3145.21   -1147.6732    1906.1322            0    40186.625    0.7079969 
  358000   358000      1433250    5424.8621     664.3732    3785.8088    837.55123     2374.464    3212.0152   -1071.7327    1909.2839            0    40186.625    0.7079969 
  359000   359000      1437250    5422.7919    673.26137    4448.9333    750.74265    2406.2303    3156.9729   -1102.7048    1853.4474            0    40186.625    0.7079969 
  360000   360000      1441250    5420.7221    658.61376    3951.7253    786.71115    2353.8798     3140.591   -1102.5085    1889.2196            0    40186.625    0.7079969 
  361000   361000      1445250    5418.6902    702.73445    3573.8092    729.92802    2511.5668    3241.4948   -1133.6337    1863.5617            0    40186.625    0.7079969 
  362000   362000      1449250    5416.5908     670.1817    3226.7131    788.64137    2395.2235    3183.8649   -1123.6937    1912.3351            0    40186.625    0.7079969 
  363000   363000      1453250    5414.5114    640.04743    4072.5171     816.7349    2287.5239    3104.2588   -1065.2176    1881.9525            0    40186.625    0.7079969 
  364000   364000      1457250    5412.4892    684.82055    3338.9176     705.1727    2447.5426    3152.7153   -1133.8985    1839.0712            0    40186.625    0.7079969 
  365000   365000      1461250    5410.4302    640.15408    4415.1921    732.07676    2287.9051    3019.9818   -1142.4041    1874.4808            0    40186.625    0.7079969 
  366000   366000      1465250    5408.3813    647.10342     4504.199    866.49638    2312.7419    3179.2383   -1081.3152    1947.8116            0    40186.625    0.7079969 
  367000   367000      1469250    5406.2839     643.9889    4136.9796    833.40518    2301.6107    3135.0159   -1094.1658     1927.571            0    40186.625    0.7079969 
  368000   368000      1473250    5404.1648    666.37894    3753.2812    816.17759    2381.6325    3197.8101   -1081.1576    1897.3352            0    40186.625    0.7079969 
  369000   369000      1477250    5402.1111    625.83806    4325.4076    804.27658    2236.7398    3041.0163   -1109.7418    1914.0184            0    40186.625    0.7079969 
  370000   370000      1481250    5400.0423    661.51811     3466.258    878.16384    2364.2599    3242.4238    -1104.554    1982.7178            0    40186.625    0.7079969 
  371000   371000      1485250    5397.9827    668.19204    3479.3043    826.73429    2388.1125    3214.8468   -1137.6696    1964.4039            0    40186.625    0.7079969 
  372000   372000      1489250    5395.9012    644.64841    3214.3821     861.6403    2303.9678    3165.6081   -1118.3246    1979.9649            0    40186.625    0.7079969 
  373000   373000      1493250     5393.807    656.24896    3217.4783    863.39944     2345.428    3208.8275   -1092.7207    1956.1202            0    40186.625    0.7079969 
  374000   374000      1497250    5391.7401    665.34381    2896.0865    702.76479     2377.933    3080.6978   -1127.7643    1830.5291            0    40186.625    0.7079969 
  375000   375000      1501250     5389.636    665.81933    3203.3871    825.33093    2379.6325    3204.9634   -1146.8013    1972.1322            0    40186.625    0.7079969 
  376000   376000      1505250    5387.5487    660.63653    4661.8378     769.9757    2361.1092    3131.0849   -1113.4962    1883.4719            0    40186.625    0.7079969 
  377000   377000      1509250    5385.4424    627.51388    2836.1974    925.75578    2242.7291    3168.4849   -1092.9626    2018.7184            0    40186.625    0.7079969 
  378000   378000      1513250    5383.3383    688.95943    3207.3799    751.15464     2462.335    3213.4896   -1140.5577    1891.7124            0    40186.625    0.7079969 
  379000   379000      1517250    5381.2562    675.21443    4415.1634    759.47977    2413.2105    3172.6902   -1142.7733    1902.2531            0    40186.625    0.7079969 
  380000   380000      1521250    5379.1709    666.60695    2183.3869    703.77355    2382.4474     3086.221   -1153.1354     1856.909            0    40186.625    0.7079969 
  381000   381000      1525250    5377.0546    659.38914    3753.8747    770.21076     2356.651    3126.8618   -1110.2184    1880.4292            0    40186.625    0.7079969 
  382000   382000      1529250     5374.953    680.29086    3403.2578     804.2692    2431.3536    3235.6228   -1114.5894    1918.8586            0    40186.625    0.7079969 
  383000   383000      1533250    5372.8914    664.92959    3511.0746    721.28985    2376.4526    3097.7424   -1146.2844    1867.5742            0    40186.625    0.7079969 
  384000   384000      1537250    5370.7935     679.0646    2904.8893    688.76363    2426.9709    3115.7346   -1146.5057    1835.2693            0    40186.625    0.7079969 
  385000   385000      1541250    5368.6952    692.26344    3846.9157    800.51403    2474.1435    3274.6575   -1096.6589     1897.173            0    40186.625    0.7079969 
  386000   386000      1545250    5366.6185    674.27546    4664.8687    800.88812    2409.8546    3210.7427   -1137.0704    1937.9585            0    40186.625    0.7079969 
  387000   387000      1549250    5364.5332    647.91537    4891.2972    780.87051    2315.6439    3096.5144   -1114.8391    1895.7096            0    40186.625    0.7079969 
  388000   388000      1553250    5362.4903    661.17373    3239.0102    706.93405    2363.0291    3069.9632   -1111.3602    1818.2942            0    40186.625    0.7079969 
  389000   389000      1557250    5360.4224    655.99988     3899.828    687.08908    2344.5378    3031.6269   -1107.6587    1794.7477            0    40186.625    0.7079969 
  390000   390000      1561250     5358.346     693.3262    3255.2202    822.42238    2477.9418    3300.3642   -1092.5872    1915.0096            0    40186.625    0.7079969 
  391000   391000      1565250    5356.2838     640.1704    3237.8556    799.06028    2287.9634    3087.0237   -1112.9236    1911.9839            0    40186.625    0.7079969 
  392000   392000      1569250    5354.1956    698.38993    3318.7527     683.7443    2496.0395    3179.7838   -1156.0275    1839.7718            0    40186.625    0.7079969 
  393000   393000      1573250    5352.0855    653.14979    3637.1942    778.59631    2334.3516    3112.9479   -1106.2877     1884.884            0    40186.625    0.7079969 
  394000   394000      1577250    5349.9771    644.43287    4424.1631    742.03277    2303.1974    3045.2302   -1117.5849    1859.6177            0    40186.625    0.7079969 
  395000   395000      1581250    5347.9118    659.71123    3116.3566    829.33372    2357.8022    3187.1359   -1102.0468    1931.3806            0    40186.625    0.7079969 
  396000   396000      1585250    5345.8308    657.53221    4056.0957    776.53701    2350.0144    3126.5514   -1139.5146    1916.0516            0    40186.625    0.7079969 
  397000   397000      1589250    5343.7572    658.12711    3801.1118    837.67718    2352.1405    3189.8177   -1124.6501    1962.3273            0    40186.625    0.7079969 
  398000   398000      1593250    5341.6611    671.91009    4059.4422    783.76039    2401.4008    3185.1612   -1099.3663    1883.1267            0    40186.625    0.7079969 
  399000   399000      1597250    5339.5587    670.60539    3428.0908    675.68725    2396.7378     3072.425   -1146.9581    1822.6453            0    40186.625    0.7079969 
  400000   400000      1601250    5337.4573    657.95104    3749.9387    696.85023    2351.5112    3048.3615   -1139.7759    1836.6261            0    40186.625    0.7079969 
  401000   401000      1605250     5335.407    654.16646    4868.8366    874.37137    2337.9852    3212.3566   -1105.8202    1980.1916            0    40186.625    0.7079969 
[...]
 2891000  2891000     11565250    223.23285    673.28833    3672.7285      718.508    2406.3266    3124.8346   -1153.6935    1872.2015            0    40186.625    0.7079969 
 2892000  2892000     11569250    221.18474    665.89447    3738.4346    768.69944     2379.901    3148.6005   -1107.3167    1876.0161            0    40186.625    0.7079969 
 2893000  2893000     11573250    219.13665    669.84488    4226.8986    725.01136    2394.0197    3119.0311   -1139.6801    1864.6915            0    40186.625    0.7079969 
 2894000  2894000     11577250    217.08873    686.62893    4484.6046    692.69097    2454.0058    3146.6968   -1145.9353    1838.6263            0    40186.625    0.7079969 
 2895000  2895000     11581250    215.04075    671.34158    3346.2931    772.18344    2399.3689    3171.5524   -1116.4743    1888.6578            0    40186.625    0.7079969 
 2896000  2896000     11585250    212.99275    688.76158    3267.9993    747.68861    2461.6279    3209.3165    -1136.336    1884.0246            0    40186.625    0.7079969 
 2897000  2897000     11589250    210.94489    639.89477    3227.8861    789.05025    2286.9783    3076.0286   -1119.9142    1908.9645            0    40186.625    0.7079969 
 2898000  2898000     11593250    208.89695    642.43942    3770.4938    831.20482    2296.0729    3127.2777   -1109.0847    1940.2895            0    40186.625    0.7079969 
 2899000  2899000     11597250    206.84892    662.79152    3562.0265    694.31427    2368.8111    3063.1253   -1161.6036    1855.9178            0    40186.625    0.7079969 
 2900000  2900000     11601250    204.80076    661.55199    3677.5614    817.99788     2364.381    3182.3789   -1075.1212    1893.1191            0    40186.625    0.7079969 
 2901000  2901000     11605250    202.75284    685.45182    3167.7557     846.4434    2449.7988    3296.2422   -1135.8952    1982.3386            0    40186.625    0.7079969 
 2902000  2902000     11609250    200.70472     659.3752    3275.7174    829.09585    2356.6012     3185.697   -1127.8715    1956.9674            0    40186.625    0.7079969 
 2903000  2903000     11613250    198.65654     654.5336    4568.2808    765.83251    2339.2974    3105.1299    -1131.736    1897.5686            0    40186.625    0.7079969 
 2904000  2904000     11617250    196.60834     663.4232     4579.966    756.19491    2371.0687    3127.2636   -1119.0275    1875.2224            0    40186.625    0.7079969 
 2905000  2905000     11621250    194.56004    674.84593    3972.6988    799.38621    2411.8935    3211.2797   -1114.7827    1914.1689            0    40186.625    0.7079969 
 2906000  2906000     11625250    192.51171     672.2069    4426.9288    861.93501    2402.4616    3264.3966   -1099.8985    1961.8335            0    40186.625    0.7079969 
 2907000  2907000     11629250    190.46345    680.63013    3607.3396     743.2298    2432.5661    3175.7959   -1143.1976    1886.4274            0    40186.625    0.7079969 
 2908000  2908000     11633250    188.41523    694.78583    4357.8152    773.79597    2483.1585    3256.9544   -1137.4598    1911.2557            0    40186.625    0.7079969 
 2909000  2909000     11637250    186.36712     651.0046    4078.2726     750.3229    2326.6847    3077.0076   -1119.3896    1869.7125            0    40186.625    0.7079969 
 2910000  2910000     11641250     184.3192    673.26538    3672.1945    768.00904    2406.2446    3174.2536   -1115.9519     1883.961            0    40186.625    0.7079969 
 2911000  2911000     11645250    182.27113    674.52252    2449.8405    730.85237    2410.7376      3141.59   -1125.0287    1855.8811            0    40186.625    0.7079969 
 2912000  2912000     11649250      180.223    649.12442    4368.7062    782.46599     2319.965     3102.431   -1090.7343    1873.2003            0    40186.625    0.7079969 
 2913000  2913000     11653250    178.17489    652.91976    3808.4568    675.06948    2333.5295     3008.599   -1157.4487    1832.5182            0    40186.625    0.7079969 
 2914000  2914000     11657250    176.12672    652.55225    4162.6535     778.9196     2332.216    3111.1356   -1150.2012    1929.1208            0    40186.625    0.7079969 
 2915000  2915000     11661250    174.07874    664.16306    5087.4361    790.05477    2373.7129    3163.7677   -1111.8755    1901.9302            0    40186.625    0.7079969 
 2916000  2916000     11665250    172.03084    652.95612    3858.1505    785.39999    2333.6595    3119.0594     -1106.81    1892.2099            0    40186.625    0.7079969 
 2917000  2917000     11669250    169.98286    640.42663     4183.647    827.53943    2288.8792    3116.4186   -1069.5998    1897.1393            0    40186.625    0.7079969 
 2918000  2918000     11673250    167.93476    666.90928    4221.7565    705.10214    2383.5279    3088.6301   -1140.5202    1845.6224            0    40186.625    0.7079969 
 2919000  2919000     11677250    165.88662    694.04008    2190.6007    786.34107    2480.4932    3266.8343   -1150.9365    1937.2776            0    40186.625    0.7079969 
 2920000  2920000     11681250    163.83871    689.98703    4144.1177    752.95046    2466.0076    3218.9581   -1108.9528    1861.9033            0    40186.625    0.7079969 
 2921000  2921000     11685250    161.79057    670.04312    3456.5006    763.57027    2394.7282    3158.2985   -1119.5312    1883.1014            0    40186.625    0.7079969 
 2922000  2922000     11689250    159.74241    651.33924    3834.1496    829.30501    2327.8807    3157.1857   -1102.4832    1931.7883            0    40186.625    0.7079969 
 2923000  2923000     11693250    157.69432    660.44275      3762.05    744.89841    2360.4166     3105.315   -1134.7419    1879.6403            0    40186.625    0.7079969 
 2924000  2924000     11697250    155.64624    668.20726     4074.952    704.58311    2388.1669      3092.75   -1128.3396    1832.9227            0    40186.625    0.7079969 
 2925000  2925000     11701250    153.59813    646.84373     3368.024    756.03694    2311.8138    3067.8508   -1157.0282    1913.0652            0    40186.625    0.7079969 
 2926000  2926000     11705250    151.55001    683.31881         5054    794.68346    2442.1755    3236.8589   -1123.2574    1917.9409            0    40186.625    0.7079969 
 2927000  2927000     11709250    149.50192    633.80287    4547.1236    739.05669    2265.2059    3004.2626   -1134.4411    1873.4978            0    40186.625    0.7079969 
 2928000  2928000     11713250     147.4537    661.00585    3868.0768    696.30328    2362.4291    3058.7324   -1135.4862    1831.7895            0    40186.625    0.7079969 
 2929000  2929000     11717250    145.40568    658.11539    4421.1784     828.7361    2352.0986    3180.8347   -1157.5054    1986.2415            0    40186.625    0.7079969 
 2930000  2930000     11721250     143.3576    672.08339    3940.2529    684.87059    2402.0201    3086.8907   -1131.4249    1816.2955            0    40186.625    0.7079969 
 2931000  2931000     11725250    141.30947    654.79806    4894.1864     808.0825    2340.2425     3148.325   -1122.3106    1930.3931            0    40186.625    0.7079969 
 2932000  2932000     11729250    139.26139    666.99531    2268.6934      716.552    2383.8354    3100.3874   -1176.3034    1892.8554            0    40186.625    0.7079969 
 2933000  2933000     11733250    137.21333    669.67667    3420.1786    794.70201    2393.4186    3188.1206   -1121.4409    1916.1429            0    40186.625    0.7079969 
 2934000  2934000     11737250    135.16526    631.89266    2684.3235    721.88549    2258.3788    2980.2643   -1128.2536     1850.139            0    40186.625    0.7079969 
 2935000  2935000     11741250    133.11721    651.40154    4253.4589    783.40939    2328.1034    3111.5128   -1124.9053    1908.3147            0    40186.625    0.7079969 
 2936000  2936000     11745250    131.06916    650.48932    3002.0297    794.51521    2324.8431    3119.3583   -1144.9185    1939.4337            0    40186.625    0.7079969 
 2937000  2937000     11749250    129.02094    653.23971    4085.5951    719.43857     2334.673    3054.1116   -1140.8849    1860.3235            0    40186.625    0.7079969 
 2938000  2938000     11753250     126.9729    665.82684    3587.8517    853.58729    2379.6593    3233.2466    -1092.134    1945.7213            0    40186.625    0.7079969 
 2939000  2939000     11757250    124.92491    640.07306    2717.5701    819.27989    2287.6155    3106.8954   -1140.2944    1959.5743            0    40186.625    0.7079969 
 2940000  2940000     11761250    122.87697    637.47121      3083.17    812.66815    2278.3165    3090.9847   -1111.9141    1924.5822            0    40186.625    0.7079969 
 2941000  2941000     11765250    120.82893     669.7907    3587.4968    782.47358    2393.8261    3176.2997    -1108.627    1891.1006            0    40186.625    0.7079969 
 2942000  2942000     11769250    118.78085    660.26291    2694.4759    791.12856    2359.7738    3150.9024   -1099.0557    1890.1843            0    40186.625    0.7079969 
 2943000  2943000     11773250    116.73286    651.99272    3917.2761    634.37429    2330.2163    2964.5906   -1166.6861    1801.0604            0    40186.625    0.7079969 
 2944000  2944000     11777250    114.68485     637.4694    4801.1347     697.3591    2278.3101    2975.6692   -1128.4656    1825.8247            0    40186.625    0.7079969 
 2945000  2945000     11781250    112.63684    644.85492    3512.8964     862.5351    2304.7058    3167.2409   -1110.9856    1973.5207            0    40186.625    0.7079969 
 2946000  2946000     11785250    110.58883    686.29355    3423.0108    798.04834    2452.8072    3250.8555   -1128.0844    1926.1327            0    40186.625    0.7079969 
 2947000  2947000     11789250    108.54077    673.34907    3498.5971    664.29358    2406.5437    3070.8373   -1151.3331    1815.6267            0    40186.625    0.7079969 
 2948000  2948000     11793250    106.49271    658.25193    3775.4525    656.64996    2352.5866    3009.2366   -1149.8883    1806.5383            0    40186.625    0.7079969 
 2949000  2949000     11797250    104.44473    669.24846     4380.744    740.93173    2391.8881    3132.8199   -1105.0283      1845.96            0    40186.625    0.7079969 
 2950000  2950000     11801250    102.39662     680.5437    3561.6797    733.33723    2432.2572    3165.5945    -1144.004    1877.3412            0    40186.625    0.7079969 
 2951000  2951000     11805250    100.34864    671.55269    3157.0164    735.34875    2400.1234    3135.4722   -1095.8563    1831.2051            0    40186.625    0.7079969 
 2952000  2952000     11809250    98.300666    654.62769    1986.4917     789.0983    2339.6336    3128.7319   -1113.9938    1903.0921            0    40186.625    0.7079969 
 2953000  2953000     11813250    96.252691    662.17933    4062.0637    858.76651    2366.6231    3225.3897   -1097.1281    1955.8947            0    40186.625    0.7079969 
 2954000  2954000     11817250    94.204772    633.87988       3573.6    754.86572    2265.4811    3020.3469   -1125.1991    1880.0648            0    40186.625    0.7079969 
 2955000  2955000     11821250    92.156786    698.62346    4353.6749    751.07194    2496.8741    3247.9461   -1136.9634    1888.0353            0    40186.625    0.7079969 
 2956000  2956000     11825250    90.108799    668.32835    4270.6406     741.7156    2388.5997    3130.3153   -1150.7128    1892.4284            0    40186.625    0.7079969 
 2957000  2957000     11829250    88.060822    650.35448    2429.1556    836.38994    2324.3612    3160.7512   -1101.4553    1937.8453            0    40186.625    0.7079969 
 2958000  2958000     11833250    86.012814    676.82438    3486.8151    730.18064    2418.9644    3149.1451   -1183.9424     1914.123            0    40186.625    0.7079969 
 2959000  2959000     11837250    83.964805    661.14269    3741.8217    637.73373    2362.9182    3000.6519   -1170.0607    1807.7944            0    40186.625    0.7079969 
 2960000  2960000     11841250     81.91681    656.11564    3184.6439     709.2454    2344.9516     3054.197   -1146.5972    1855.8426            0    40186.625    0.7079969 
 2961000  2961000     11845250    79.868816      661.227    2813.6479    783.71393    2363.2195    3146.9334   -1122.5993    1906.3132            0    40186.625    0.7079969 
 2962000  2962000     11849250    77.820795     653.9484    3840.3142    769.50369    2337.2059    3106.7096   -1087.0009    1856.5046            0    40186.625    0.7079969 
 2963000  2963000     11853250    75.772792    664.68513    3644.6249    685.48875    2375.5788    3061.0676   -1151.9988    1837.4876            0    40186.625    0.7079969 
 2964000  2964000     11857250    73.724741     657.8205    4468.2637     866.2618    2351.0447    3217.3065   -1107.8534    1974.1152            0    40186.625    0.7079969 
 2965000  2965000     11861250    71.676748    669.47753    5228.7922    794.77417    2392.7068     3187.481   -1131.3226    1926.0968            0    40186.625    0.7079969 
 2966000  2966000     11865250    69.628788     641.7334    3923.3706    875.74426    2293.5496    3169.2938   -1103.7803    1979.5246            0    40186.625    0.7079969 
 2967000  2967000     11869250    67.580928    683.45186    4699.1599    726.85645     2442.651    3169.5074   -1113.8362    1840.6927            0    40186.625    0.7079969 
 2968000  2968000     11873250    65.532991    695.06298    3534.2256    786.86885     2484.149    3271.0179   -1096.8404    1883.7093            0    40186.625    0.7079969 
 2969000  2969000     11877250    63.485043    666.36833    3017.0287    814.69262    2381.5946    3196.2872    -1106.919    1921.6116            0    40186.625    0.7079969 
 2970000  2970000     11881250    61.437145    697.69999    4796.2979    711.31305    2493.5737    3204.8867   -1121.9793    1833.2924            0    40186.625    0.7079969 
 2971000  2971000     11885250    59.389202    651.84158    4647.8123    772.72432    2329.6761    3102.4004   -1111.6272    1884.3515            0    40186.625    0.7079969 
 2972000  2972000     11889250    57.341282    677.25895    4032.9381    857.67534    2420.5176    3278.1929    -1104.844    1962.5193            0    40186.625    0.7079969 
 2973000  2973000     11893250    55.293385    662.55451     3043.294    779.35151     2367.964    3147.3155   -1118.8269    1898.1784            0    40186.625    0.7079969 
 2974000  2974000     11897250    53.245467    656.26777     2719.728     769.5856    2345.4953    3115.0809   -1152.8074     1922.393            0    40186.625    0.7079969 
 2975000  2975000     11901250    51.197554    697.82637    3631.4421    728.84231    2494.0253    3222.8677    -1146.356    1875.1983            0    40186.625    0.7079969 
 2976000  2976000     11905250    49.149632    640.30212    4717.2945    797.44827    2288.4342    3085.8825    -1105.936    1903.3843            0    40186.625    0.7079969 
 2977000  2977000     11909250    47.101749    656.33545    2736.3804    747.06516    2345.7372    3092.8023   -1126.9324    1873.9975            0    40186.625    0.7079969 
 2978000  2978000     11913250    45.053812    650.55362    3277.0345    737.86568    2325.0729    3062.9386    -1149.349    1887.2147            0    40186.625    0.7079969 
 2979000  2979000     11917250    43.005885    657.60706    4112.1871    761.08253    2350.2819    3111.3644   -1104.5412    1865.6237            0    40186.625    0.7079969 
 2980000  2980000     11921250    40.957962    660.86005    5025.0426    781.36169    2361.9081    3143.2697   -1116.7698    1898.1314            0    40186.625    0.7079969 
 2981000  2981000     11925250    38.910072     651.9657    2647.1672    754.37045    2330.1197    3084.4901   -1098.2586    1852.6291            0    40186.625    0.7079969 
 2982000  2982000     11929250    36.862207    657.53241    4046.5135     817.3293    2350.0151    3167.3444   -1100.0008    1917.3301            0    40186.625    0.7079969 
 2983000  2983000     11933250    34.814312    687.49249     4428.797    784.91155    2457.0921    3242.0037   -1131.9821    1916.8937            0    40186.625    0.7079969 
 2984000  2984000     11937250    32.766419    654.44767    4157.2979    882.66912    2338.9903    3221.6594   -1097.0411    1979.7102            0    40186.625    0.7079969 
 2985000  2985000     11941250    30.718508    665.77499    2824.7253    692.12071     2379.474    3071.5947   -1150.2769    1842.3976            0    40186.625    0.7079969 
 2986000  2986000     11945250     28.67059    678.54997    3101.0669     769.2713    2425.1317     3194.403   -1114.3635    1883.6348            0    40186.625    0.7079969 
 2987000  2987000     11949250    26.622694    640.94355       3119.6     683.7954    2290.7267    2974.5221   -1133.4925    1817.2879            0    40186.625    0.7079969 
 2988000  2988000     11953250    24.574782     690.6966    2811.5827    727.29869    2468.5436    3195.8423   -1166.8362    1894.1349            0    40186.625    0.7079969 
 2989000  2989000     11957250    22.526868    641.41211    3592.0856    784.62616    2292.4013    3077.0274   -1177.3322    1961.9583            0    40186.625    0.7079969 
 2990000  2990000     11961250    20.478952    665.28276    3706.1796    785.57747    2377.7148    3163.2922   -1118.2237    1903.8011            0    40186.625    0.7079969 
 2991000  2991000     11965250    18.431052    641.81543    4025.7463    816.66967    2293.8427    3110.5124   -1093.8582    1910.5279            0    40186.625    0.7079969 
 2992000  2992000     11969250    16.383146    665.46743    3558.7709    713.35831    2378.3748    3091.7331   -1128.0518    1841.4101            0    40186.625    0.7079969 
 2993000  2993000     11973250    14.335262     661.9397    4227.8318    904.87938    2365.7667    3270.6461   -1100.2093    2005.0887            0    40186.625    0.7079969 
 2994000  2994000     11977250    12.287361    683.97097    3908.3965    781.29028    2444.5063    3225.7965   -1116.9363    1898.2265            0    40186.625    0.7079969 
 2995000  2995000     11981250    10.239472    653.04486    2304.3458    824.75847    2333.9766    3158.7351   -1127.0886    1951.8471            0    40186.625    0.7079969 
 2996000  2996000     11985250    8.1915819    658.30056    2729.4749    795.58434    2352.7605    3148.3448   -1132.1445    1927.7288            0    40186.625    0.7079969 
 2997000  2997000     11989250    6.1436898    654.87779    4885.1398     777.2791    2340.5275    3117.8066   -1130.0734    1907.3525            0    40186.625    0.7079969 
 2998000  2998000     11993250    4.0957943    671.90526    3104.6287    784.73482    2401.3835    3186.1183   -1142.8514    1927.5862            0    40186.625    0.7079969 
 2999000  2999000     11997250    2.0478952     656.7784    3262.6379    810.38929    2347.3203    3157.7095   -1148.0349    1958.4242            0    40186.625    0.7079969 
 3000000  3000000     12001250            0     639.2215    4094.4832    750.61071     2284.572    3035.1828   -1081.8008    1832.4115            0    40186.625    0.7079969 
Loop time of 6143.68 on 1 procs (1 MPI x 1 OpenMP) for 3000000 steps with 1200 atoms

Pair  time (%) = 1296.12 (21.0968)
Bond  time (%) = 3655.94 (59.5072)
Neigh time (%) = 63.5062 (1.03368)
Comm  time (%) = 523.981 (8.52877)
Outpt time (%) = 0.101449 (0.00165127)
Other time (%) = 604.04 (9.83188)

Nlocal:    1200 ave 1200 max 1200 min
Histogram: 1 0 0 0 0 0 0 0 0 0
Nghost:    6549 ave 6549 max 6549 min
Histogram: 1 0 0 0 0 0 0 0 0 0
Neighs:    0 ave 0 max 0 min
Histogram: 1 0 0 0 0 0 0 0 0 0

Total # of neighbors = 0
Ave neighs/atom = 0
Ave special neighs/atom = 5.25
Neighbor list builds = 234204
Dangerous builds = 0
write_restart	conf.bin.2

Please see the log.cite file for references relevant to this simulation

